
     Program PWSCF v.6.7MaX starts on 19May2022 at 13: 4:55 

     This program is part of the open-source Quantum ESPRESSO suite
     for quantum simulation of materials; please cite
         "P. Giannozzi et al., J. Phys.:Condens. Matter 21 395502 (2009);
         "P. Giannozzi et al., J. Phys.:Condens. Matter 29 465901 (2017);
          URL http://www.quantum-espresso.org", 
     in publications or presentations arising from this work. More details at
     http://www.quantum-espresso.org/quote

     Parallel version (MPI), running on    40 processors

     MPI processes distributed on     1 nodes
     R & G space division:  proc/nbgrp/npool/nimage =      40
     Reading input from relax.in

     Current dimensions of program PWSCF are:
     Max number of different atomic species (ntypx) = 10
     Max number of k-points (npk) =  40000
     Max angular momentum in pseudopotentials (lmaxx) =  3
     Message from routine scan_end:
     No INFO block end statement, possibly corrupted file
     Message from routine scan_end:
     No INFO block end statement, possibly corrupted file
     file Se.BFD-lp.upf: wavefunction(s)  0s 0p 0d 0f renormalized

     IMPORTANT: XC functional enforced from input :
     Exchange-correlation= PBE
                           (   1   4   3   4   0   0   0)
     Any further DFT definition will be discarded
     Please, verify this is what you really want

     Message from routine set_cutoff:
     ecutrho < 4*ecutwfc, are you sure?

     Subspace diagonalization in iterative solution of the eigenvalue problem:
     a serial algorithm will be used


     Parallelization info
     --------------------
     sticks:   dense  smooth     PW     G-vecs:    dense   smooth      PW
     Min          40      40     21                 8010     8010    3151
     Max          41      41     22                 8051     8051    3196
     Sum        1639    1639    877               321661   321661  126925



     bravais-lattice index     =            4
     lattice parameter (alat)  =       6.2918  a.u.
     unit-cell volume          =    1294.2421 (a.u.)^3
     number of atoms/cell      =            3
     number of atomic types    =            2
     number of electrons       =        25.00 (up:  13.00, down:  12.00)
     number of Kohn-Sham states=           17
     kinetic-energy cutoff     =     300.0000  Ry
     charge density cutoff     =     600.0000  Ry
     scf convergence threshold =      1.0E-09
     mixing beta               =       0.2000
     number of iterations used =            8  local-TF  mixing
     energy convergence thresh.=      1.0E-04
     force convergence thresh. =      8.0E-05
     press convergence thresh. =      4.0E-01
     Exchange-correlation= PBE
                           (   1   4   3   4   0   0   0)
     nstep                     =           50


     celldm(1)=   6.291843  celldm(2)=   0.000000  celldm(3)=   6.000000
     celldm(4)=   0.000000  celldm(5)=   0.000000  celldm(6)=   0.000000

     crystal axes: (cart. coord. in units of alat)
               a(1) = (   1.000000   0.000000   0.000000 )  
               a(2) = (  -0.500000   0.866025   0.000000 )  
               a(3) = (   0.000000   0.000000   6.000000 )  

     reciprocal axes: (cart. coord. in units 2 pi/alat)
               b(1) = (  1.000000  0.577350 -0.000000 )  
               b(2) = (  0.000000  1.154701  0.000000 )  
               b(3) = (  0.000000 -0.000000  0.166667 )  


     PseudoPot. # 1 for Se read from file:
     ./Se.BFD-lp.upf
     MD5 check sum: 8511c50dca8a54f81d7f29e5971a2e0c
     Pseudo is Norm-conserving, Zval =  6.0
     Generated by new atomic code, or converted to UPF format
     Using radial grid of 2000 points,  3 beta functions with: 
                l(1) =   0
                l(2) =   2
                l(3) =   3

     PseudoPot. # 2 for V  read from file:
     ./V.opt.upf
     MD5 check sum: bc1a3e0eba4eeb885e5717773f816659
     Pseudo is Norm-conserving, Zval = 13.0
     Generated by new atomic code, or converted to UPF format
     Using radial grid of 1157 points,  2 beta functions with: 
                l(1) =   0
                l(2) =   2

     atomic species   valence    mass     pseudopotential
        Se             6.00    78.96000     Se( 1.00)
        V             13.00    50.94200     V ( 1.00)

     Starting magnetic structure 
     atomic species   magnetization
        Se           1.000
        V            0.000

     12 Sym. Ops. (no inversion) found



   Cartesian axes

     site n.     atom                  positions (alat units)
         1           V   tau(   1) = (  -0.0000000   0.5773503   3.0000000  )
         2           Se  tau(   2) = (   0.5000000   0.2886751   3.4734074  )
         3           Se  tau(   3) = (   0.5000000   0.2886751   2.5265927  )

     number of k points=     7  Gaussian smearing, width (Ry)=  0.0020
                       cart. coord. in units 2pi/alat
        k(    1) = (   0.0000000   0.0000000   0.0000000), wk =   0.0277778
        k(    2) = (   0.0000000   0.1924501   0.0000000), wk =   0.1666667
        k(    3) = (   0.0000000   0.3849002   0.0000000), wk =   0.1666667
        k(    4) = (   0.0000000  -0.5773503   0.0000000), wk =   0.0833333
        k(    5) = (   0.1666667   0.2886751   0.0000000), wk =   0.1666667
        k(    6) = (   0.1666667   0.4811252   0.0000000), wk =   0.3333333
        k(    7) = (   0.3333333   0.5773503   0.0000000), wk =   0.0555556

     Dense  grid:   321661 G-vectors     FFT dimensions: (  50,  50, 300)

     Estimated max dynamical RAM per process >      27.34 MB

     Estimated total dynamical RAM >       1.07 GB
     Generating pointlists ...
     new r_m :   0.3080 (alat units)  1.9378 (a.u.) for type    1
     new r_m :   0.3080 (alat units)  1.9378 (a.u.) for type    2

     Initial potential from superposition of free atoms

     starting charge    9.95493, renormalised to   25.00000

     negative rho (up, down):  3.818E-04 9.844E-04
     Starting wfcs are   41 randomized atomic wfcs

     total cpu time spent up to now is        3.1 secs

     Self-consistent Calculation

     iteration #  1     ecut=   300.00 Ry     beta= 0.20
     Davidson diagonalization with overlap
     c_bands:  2 eigenvalues not converged
     c_bands:  1 eigenvalues not converged
     c_bands:  1 eigenvalues not converged
     c_bands:  1 eigenvalues not converged
     c_bands:  1 eigenvalues not converged
     ethr =  1.00E-02,  avg # of iterations = 18.5

     negative rho (up, down):  6.210E-02 2.432E-01

     total cpu time spent up to now is       12.5 secs

     total energy              =    -405.84979062 Ry
     estimated scf accuracy    <     882.05642272 Ry

     total magnetization       =     1.00 Bohr mag/cell
     absolute magnetization    =     2.74 Bohr mag/cell

     iteration #  2     ecut=   300.00 Ry     beta= 0.20
     Davidson diagonalization with overlap
     ethr =  1.00E-02,  avg # of iterations =  6.3

     negative rho (up, down):  2.024E-01 3.025E-01

     total cpu time spent up to now is       15.5 secs

     total energy              =    -341.92906902 Ry
     estimated scf accuracy    <     581.57980755 Ry

     total magnetization       =     1.00 Bohr mag/cell
     absolute magnetization    =     1.62 Bohr mag/cell

     iteration #  3     ecut=   300.00 Ry     beta= 0.20
     Davidson diagonalization with overlap
     ethr =  1.00E-02,  avg # of iterations =  6.6

     negative rho (up, down):  7.606E-01 8.814E-01

     total cpu time spent up to now is       18.7 secs

     total energy              =    -156.95661167 Ry
     estimated scf accuracy    <     420.52514300 Ry

     total magnetization       =     1.00 Bohr mag/cell
     absolute magnetization    =     1.05 Bohr mag/cell

     iteration #  4     ecut=   300.00 Ry     beta= 0.20
     Davidson diagonalization with overlap
     ethr =  1.00E-02,  avg # of iterations = 11.7

     negative rho (up, down):  5.844E-01 7.467E-01

     total cpu time spent up to now is       25.1 secs

     total energy              =    -185.27755067 Ry
     estimated scf accuracy    <      22.68222231 Ry

     total magnetization       =     1.00 Bohr mag/cell
     absolute magnetization    =     1.03 Bohr mag/cell

     iteration #  5     ecut=   300.00 Ry     beta= 0.20
     Davidson diagonalization with overlap
     ethr =  1.00E-02,  avg # of iterations =  2.1

     negative rho (up, down):  2.808E-01 3.166E-01

     total cpu time spent up to now is       27.2 secs

     total energy              =    -175.31521697 Ry
     estimated scf accuracy    <      14.20089609 Ry

     total magnetization       =     1.00 Bohr mag/cell
     absolute magnetization    =     1.01 Bohr mag/cell

     iteration #  6     ecut=   300.00 Ry     beta= 0.20
     Davidson diagonalization with overlap
     ethr =  1.00E-02,  avg # of iterations = 13.6

     negative rho (up, down):  2.027E-01 2.443E-01

     total cpu time spent up to now is       33.4 secs

     total energy              =    -181.91444732 Ry
     estimated scf accuracy    <      72.96140059 Ry

     total magnetization       =     1.00 Bohr mag/cell
     absolute magnetization    =     1.00 Bohr mag/cell

     iteration #  7     ecut=   300.00 Ry     beta= 0.20
     Davidson diagonalization with overlap
     ethr =  1.00E-02,  avg # of iterations =  2.8

     negative rho (up, down):  1.159E-01 1.377E-01

     total cpu time spent up to now is       35.9 secs

     total energy              =    -171.94839532 Ry
     estimated scf accuracy    <      30.44325457 Ry

     total magnetization       =     1.00 Bohr mag/cell
     absolute magnetization    =     1.00 Bohr mag/cell

     iteration #  8     ecut=   300.00 Ry     beta= 0.20
     Davidson diagonalization with overlap
     ethr =  1.00E-02,  avg # of iterations =  5.9

     negative rho (up, down):  9.811E-02 1.023E-01

     total cpu time spent up to now is       39.3 secs

     total energy              =    -183.36673777 Ry
     estimated scf accuracy    <      11.45538229 Ry

     total magnetization       =     1.00 Bohr mag/cell
     absolute magnetization    =     1.00 Bohr mag/cell

     iteration #  9     ecut=   300.00 Ry     beta= 0.20
     Davidson diagonalization with overlap
     ethr =  1.00E-02,  avg # of iterations =  1.1

     negative rho (up, down):  8.810E-02 9.203E-02

     total cpu time spent up to now is       41.3 secs

     total energy              =    -176.96406919 Ry
     estimated scf accuracy    <       9.22398562 Ry

     total magnetization       =     1.00 Bohr mag/cell
     absolute magnetization    =     1.00 Bohr mag/cell

     iteration # 10     ecut=   300.00 Ry     beta= 0.20
     Davidson diagonalization with overlap
     ethr =  1.00E-02,  avg # of iterations =  9.3

     negative rho (up, down):  1.974E-02 2.195E-02

     total cpu time spent up to now is       45.9 secs

     total energy              =    -176.53982917 Ry
     estimated scf accuracy    <      47.77076580 Ry

     total magnetization       =     1.00 Bohr mag/cell
     absolute magnetization    =     1.00 Bohr mag/cell

     iteration # 11     ecut=   300.00 Ry     beta= 0.20
     Davidson diagonalization with overlap
     ethr =  1.00E-02,  avg # of iterations =  3.4

     negative rho (up, down):  2.047E-02 2.900E-02

     total cpu time spent up to now is       48.8 secs

     total energy              =    -180.64053794 Ry
     estimated scf accuracy    <       0.85882431 Ry

     total magnetization       =     1.00 Bohr mag/cell
     absolute magnetization    =     1.05 Bohr mag/cell

     iteration # 12     ecut=   300.00 Ry     beta= 0.20
     Davidson diagonalization with overlap
     ethr =  3.44E-03,  avg # of iterations =  4.1

     negative rho (up, down):  2.630E-02 4.267E-02

     total cpu time spent up to now is       51.7 secs

     total energy              =    -183.89988346 Ry
     estimated scf accuracy    <      18.87606057 Ry

     total magnetization       =     1.00 Bohr mag/cell
     absolute magnetization    =     1.00 Bohr mag/cell

     iteration # 13     ecut=   300.00 Ry     beta= 0.20
     Davidson diagonalization with overlap
     ethr =  3.44E-03,  avg # of iterations =  2.0

     negative rho (up, down):  2.707E-02 3.524E-02

     total cpu time spent up to now is       54.0 secs

     total energy              =    -183.88643647 Ry
     estimated scf accuracy    <      28.58784813 Ry

     total magnetization       =     1.00 Bohr mag/cell
     absolute magnetization    =     1.00 Bohr mag/cell

     iteration # 14     ecut=   300.00 Ry     beta= 0.20
     Davidson diagonalization with overlap
     ethr =  3.44E-03,  avg # of iterations =  1.0

     negative rho (up, down):  4.324E-02 4.091E-02

     total cpu time spent up to now is       56.1 secs

     total energy              =    -177.93434372 Ry
     estimated scf accuracy    <      27.99593074 Ry

     total magnetization       =     1.00 Bohr mag/cell
     absolute magnetization    =     1.00 Bohr mag/cell

     iteration # 15     ecut=   300.00 Ry     beta= 0.20
     Davidson diagonalization with overlap
     ethr =  3.44E-03,  avg # of iterations =  4.0

     negative rho (up, down):  3.717E-02 3.176E-02

     total cpu time spent up to now is       58.8 secs

     total energy              =    -180.86916146 Ry
     estimated scf accuracy    <       1.50356872 Ry

     total magnetization       =     1.00 Bohr mag/cell
     absolute magnetization    =     1.11 Bohr mag/cell

     iteration # 16     ecut=   300.00 Ry     beta= 0.20
     Davidson diagonalization with overlap
     ethr =  3.44E-03,  avg # of iterations =  2.5

     negative rho (up, down):  4.948E-02 4.128E-02

     total cpu time spent up to now is       61.2 secs

     total energy              =    -181.55844989 Ry
     estimated scf accuracy    <       3.65482414 Ry

     total magnetization       =     1.00 Bohr mag/cell
     absolute magnetization    =     1.18 Bohr mag/cell

     iteration # 17     ecut=   300.00 Ry     beta= 0.20
     Davidson diagonalization with overlap
     ethr =  3.44E-03,  avg # of iterations =  1.2

     negative rho (up, down):  3.592E-02 3.360E-02

     total cpu time spent up to now is       63.2 secs

     total energy              =    -182.40087079 Ry
     estimated scf accuracy    <       5.99907213 Ry

     total magnetization       =     1.00 Bohr mag/cell
     absolute magnetization    =     1.12 Bohr mag/cell

     iteration # 18     ecut=   300.00 Ry     beta= 0.20
     Davidson diagonalization with overlap
     ethr =  3.44E-03,  avg # of iterations =  4.2

     negative rho (up, down):  3.889E-02 3.554E-02

     total cpu time spent up to now is       65.7 secs

     total energy              =    -182.98654283 Ry
     estimated scf accuracy    <      19.23341549 Ry

     total magnetization       =     1.00 Bohr mag/cell
     absolute magnetization    =     1.00 Bohr mag/cell

     iteration # 19     ecut=   300.00 Ry     beta= 0.20
     Davidson diagonalization with overlap
     ethr =  3.44E-03,  avg # of iterations =  1.1

     negative rho (up, down):  2.481E-02 3.211E-02

     total cpu time spent up to now is       68.0 secs

     total energy              =    -180.83586054 Ry
     estimated scf accuracy    <      20.92193186 Ry

     total magnetization       =     1.00 Bohr mag/cell
     absolute magnetization    =     1.00 Bohr mag/cell

     iteration # 20     ecut=   300.00 Ry     beta= 0.20
     Davidson diagonalization with overlap
     ethr =  3.44E-03,  avg # of iterations =  1.9

     negative rho (up, down):  4.057E-02 5.648E-02

     total cpu time spent up to now is       70.3 secs

     total energy              =    -180.41760402 Ry
     estimated scf accuracy    <       4.10757509 Ry

     total magnetization       =     1.00 Bohr mag/cell
     absolute magnetization    =     1.24 Bohr mag/cell

     iteration # 21     ecut=   300.00 Ry     beta= 0.20
     Davidson diagonalization with overlap
     ethr =  3.44E-03,  avg # of iterations =  3.2

     negative rho (up, down):  6.073E-02 8.271E-02

     total cpu time spent up to now is       72.8 secs

     total energy              =    -181.12264548 Ry
     estimated scf accuracy    <       0.98923589 Ry

     total magnetization       =     1.00 Bohr mag/cell
     absolute magnetization    =     1.10 Bohr mag/cell

     iteration # 22     ecut=   300.00 Ry     beta= 0.20
     Davidson diagonalization with overlap
     ethr =  3.44E-03,  avg # of iterations =  1.1

     negative rho (up, down):  5.721E-02 6.279E-02

     total cpu time spent up to now is       74.8 secs

     total energy              =    -181.07959959 Ry
     estimated scf accuracy    <       0.51297333 Ry

     total magnetization       =     1.00 Bohr mag/cell
     absolute magnetization    =     1.10 Bohr mag/cell

     iteration # 23     ecut=   300.00 Ry     beta= 0.20
     Davidson diagonalization with overlap
     ethr =  2.05E-03,  avg # of iterations =  1.0

     negative rho (up, down):  5.218E-02 5.066E-02

     total cpu time spent up to now is       76.8 secs

     total energy              =    -181.07614291 Ry
     estimated scf accuracy    <       0.22847022 Ry

     total magnetization       =     1.00 Bohr mag/cell
     absolute magnetization    =     1.10 Bohr mag/cell

     iteration # 24     ecut=   300.00 Ry     beta= 0.20
     Davidson diagonalization with overlap
     ethr =  9.14E-04,  avg # of iterations =  1.1

     negative rho (up, down):  5.500E-02 5.091E-02

     total cpu time spent up to now is       78.9 secs

     total energy              =    -181.05770172 Ry
     estimated scf accuracy    <       0.27542323 Ry

     total magnetization       =     1.00 Bohr mag/cell
     absolute magnetization    =     1.10 Bohr mag/cell

     iteration # 25     ecut=   300.00 Ry     beta= 0.20
     Davidson diagonalization with overlap
     ethr =  9.14E-04,  avg # of iterations =  1.0

     negative rho (up, down):  9.770E-02 7.159E-02

     total cpu time spent up to now is       81.1 secs

     total energy              =    -181.06653000 Ry
     estimated scf accuracy    <       0.15840674 Ry

     total magnetization       =     1.00 Bohr mag/cell
     absolute magnetization    =     1.10 Bohr mag/cell

     iteration # 26     ecut=   300.00 Ry     beta= 0.20
     Davidson diagonalization with overlap
     ethr =  6.34E-04,  avg # of iterations =  2.1

     negative rho (up, down):  5.361E-02 3.557E-02

     total cpu time spent up to now is       83.5 secs

     total energy              =    -181.11256633 Ry
     estimated scf accuracy    <       0.46072270 Ry

     total magnetization       =     1.00 Bohr mag/cell
     absolute magnetization    =     1.04 Bohr mag/cell

     iteration # 27     ecut=   300.00 Ry     beta= 0.20
     Davidson diagonalization with overlap
     ethr =  6.34E-04,  avg # of iterations =  1.1

     negative rho (up, down):  2.730E-02 2.623E-02

     total cpu time spent up to now is       85.6 secs

     total energy              =    -181.03761013 Ry
     estimated scf accuracy    <       0.73977085 Ry

     total magnetization       =     1.00 Bohr mag/cell
     absolute magnetization    =     1.03 Bohr mag/cell

     iteration # 28     ecut=   300.00 Ry     beta= 0.20
     Davidson diagonalization with overlap
     ethr =  6.34E-04,  avg # of iterations =  1.3

     negative rho (up, down):  4.800E-02 4.068E-02

     total cpu time spent up to now is       87.8 secs

     total energy              =    -180.97718118 Ry
     estimated scf accuracy    <       0.24885817 Ry

     total magnetization       =     1.00 Bohr mag/cell
     absolute magnetization    =     1.03 Bohr mag/cell

     iteration # 29     ecut=   300.00 Ry     beta= 0.20
     Davidson diagonalization with overlap
     ethr =  6.34E-04,  avg # of iterations =  3.1

     negative rho (up, down):  2.683E-02 2.660E-02

     total cpu time spent up to now is       90.3 secs

     total energy              =    -181.00289999 Ry
     estimated scf accuracy    <       0.12943184 Ry

     total magnetization       =     1.00 Bohr mag/cell
     absolute magnetization    =     1.09 Bohr mag/cell

     iteration # 30     ecut=   300.00 Ry     beta= 0.20
     Davidson diagonalization with overlap
     ethr =  5.18E-04,  avg # of iterations =  2.1

     negative rho (up, down):  1.154E-02 1.125E-02

     total cpu time spent up to now is       92.7 secs

     total energy              =    -181.01024984 Ry
     estimated scf accuracy    <       0.17378718 Ry

     total magnetization       =     1.00 Bohr mag/cell
     absolute magnetization    =     1.10 Bohr mag/cell

     iteration # 31     ecut=   300.00 Ry     beta= 0.20
     Davidson diagonalization with overlap
     ethr =  5.18E-04,  avg # of iterations =  1.1

     negative rho (up, down):  8.379E-03 9.177E-03

     total cpu time spent up to now is       95.1 secs

     total energy              =    -181.03692616 Ry
     estimated scf accuracy    <       0.03437144 Ry

     total magnetization       =     1.00 Bohr mag/cell
     absolute magnetization    =     1.26 Bohr mag/cell

     iteration # 32     ecut=   300.00 Ry     beta= 0.20
     Davidson diagonalization with overlap
     ethr =  1.37E-04,  avg # of iterations =  1.5

     negative rho (up, down):  6.409E-03 7.042E-03

     total cpu time spent up to now is       97.6 secs

     total energy              =    -181.04050961 Ry
     estimated scf accuracy    <       0.00060499 Ry

     total magnetization       =     1.00 Bohr mag/cell
     absolute magnetization    =     1.28 Bohr mag/cell

     iteration # 33     ecut=   300.00 Ry     beta= 0.20
     Davidson diagonalization with overlap
     ethr =  2.42E-06,  avg # of iterations =  9.6

     negative rho (up, down):  6.629E-03 7.398E-03

     total cpu time spent up to now is      102.1 secs

     total energy              =    -181.04139827 Ry
     estimated scf accuracy    <       0.00082392 Ry

     total magnetization       =     1.00 Bohr mag/cell
     absolute magnetization    =     1.30 Bohr mag/cell

     iteration # 34     ecut=   300.00 Ry     beta= 0.20
     Davidson diagonalization with overlap
     ethr =  2.42E-06,  avg # of iterations =  2.0

     negative rho (up, down):  6.904E-03 7.767E-03

     total cpu time spent up to now is      104.7 secs

     total energy              =    -181.04119297 Ry
     estimated scf accuracy    <       0.00152192 Ry

     total magnetization       =     1.00 Bohr mag/cell
     absolute magnetization    =     1.31 Bohr mag/cell

     iteration # 35     ecut=   300.00 Ry     beta= 0.20
     Davidson diagonalization with overlap
     ethr =  2.42E-06,  avg # of iterations =  2.1

     negative rho (up, down):  3.078E-03 3.013E-03

     total cpu time spent up to now is      107.5 secs

     total energy              =    -181.04170938 Ry
     estimated scf accuracy    <       0.00052632 Ry

     total magnetization       =     1.00 Bohr mag/cell
     absolute magnetization    =     1.31 Bohr mag/cell

     iteration # 36     ecut=   300.00 Ry     beta= 0.20
     Davidson diagonalization with overlap
     ethr =  2.11E-06,  avg # of iterations =  2.0

     negative rho (up, down):  2.518E-03 2.495E-03

     total cpu time spent up to now is      110.4 secs

     total energy              =    -181.04182425 Ry
     estimated scf accuracy    <       0.00045150 Ry

     total magnetization       =     1.00 Bohr mag/cell
     absolute magnetization    =     1.33 Bohr mag/cell

     iteration # 37     ecut=   300.00 Ry     beta= 0.20
     Davidson diagonalization with overlap
     ethr =  1.81E-06,  avg # of iterations =  1.0

     negative rho (up, down):  1.236E-03 1.295E-03

     total cpu time spent up to now is      113.6 secs

     total energy              =    -181.04181229 Ry
     estimated scf accuracy    <       0.00004431 Ry

     total magnetization       =     1.00 Bohr mag/cell
     absolute magnetization    =     1.34 Bohr mag/cell

     iteration # 38     ecut=   300.00 Ry     beta= 0.20
     Davidson diagonalization with overlap
     ethr =  1.77E-07,  avg # of iterations =  3.1

     negative rho (up, down):  9.743E-04 9.998E-04

     total cpu time spent up to now is      117.3 secs

     total energy              =    -181.04181367 Ry
     estimated scf accuracy    <       0.00008173 Ry

     total magnetization       =     1.00 Bohr mag/cell
     absolute magnetization    =     1.35 Bohr mag/cell

     iteration # 39     ecut=   300.00 Ry     beta= 0.20
     Davidson diagonalization with overlap
     ethr =  1.77E-07,  avg # of iterations =  1.4

     negative rho (up, down):  3.722E-04 3.157E-04

     total cpu time spent up to now is      120.7 secs

     total energy              =    -181.04179848 Ry
     estimated scf accuracy    <       0.00000755 Ry

     total magnetization       =     1.00 Bohr mag/cell
     absolute magnetization    =     1.35 Bohr mag/cell

     iteration # 40     ecut=   300.00 Ry     beta= 0.20
     Davidson diagonalization with overlap
     ethr =  3.02E-08,  avg # of iterations =  5.4

     negative rho (up, down):  2.787E-04 2.269E-04

     total cpu time spent up to now is      126.6 secs

     total energy              =    -181.04180038 Ry
     estimated scf accuracy    <       0.00004081 Ry

     total magnetization       =     1.00 Bohr mag/cell
     absolute magnetization    =     1.36 Bohr mag/cell

     iteration # 41     ecut=   300.00 Ry     beta= 0.20
     Davidson diagonalization with overlap
     ethr =  3.02E-08,  avg # of iterations =  3.2

     negative rho (up, down):  2.749E-04 2.132E-04

     total cpu time spent up to now is      130.3 secs

     total energy              =    -181.04180324 Ry
     estimated scf accuracy    <       0.00000283 Ry

     total magnetization       =     1.00 Bohr mag/cell
     absolute magnetization    =     1.36 Bohr mag/cell

     iteration # 42     ecut=   300.00 Ry     beta= 0.20
     Davidson diagonalization with overlap
     ethr =  1.13E-08,  avg # of iterations =  1.6

     negative rho (up, down):  2.188E-04 1.404E-04

     total cpu time spent up to now is      135.1 secs

     total energy              =    -181.04180535 Ry
     estimated scf accuracy    <       0.00000114 Ry

     total magnetization       =     1.00 Bohr mag/cell
     absolute magnetization    =     1.36 Bohr mag/cell

     iteration # 43     ecut=   300.00 Ry     beta= 0.20
     Davidson diagonalization with overlap
     ethr =  4.56E-09,  avg # of iterations =  4.2

     negative rho (up, down):  2.090E-04 1.292E-04

     total cpu time spent up to now is      140.0 secs

     total energy              =    -181.04180514 Ry
     estimated scf accuracy    <       0.00000016 Ry

     total magnetization       =     1.00 Bohr mag/cell
     absolute magnetization    =     1.36 Bohr mag/cell

     iteration # 44     ecut=   300.00 Ry     beta= 0.20
     Davidson diagonalization with overlap
     ethr =  6.35E-10,  avg # of iterations =  4.5

     negative rho (up, down):  1.744E-04 9.166E-05

     total cpu time spent up to now is      144.2 secs

     total energy              =    -181.04180461 Ry
     estimated scf accuracy    <       0.00000010 Ry

     total magnetization       =     1.00 Bohr mag/cell
     absolute magnetization    =     1.36 Bohr mag/cell

     iteration # 45     ecut=   300.00 Ry     beta= 0.20
     Davidson diagonalization with overlap
     ethr =  4.01E-10,  avg # of iterations =  2.8

     negative rho (up, down):  1.705E-04 8.680E-05

     total cpu time spent up to now is      148.7 secs

     total energy              =    -181.04180340 Ry
     estimated scf accuracy    <       0.00000006 Ry

     total magnetization       =     1.00 Bohr mag/cell
     absolute magnetization    =     1.36 Bohr mag/cell

     iteration # 46     ecut=   300.00 Ry     beta= 0.20
     Davidson diagonalization with overlap
     ethr =  2.56E-10,  avg # of iterations =  1.6

     negative rho (up, down):  1.658E-04 8.100E-05

     total cpu time spent up to now is      153.0 secs

     total energy              =    -181.04180348 Ry
     estimated scf accuracy    <       0.00000003 Ry

     total magnetization       =     1.00 Bohr mag/cell
     absolute magnetization    =     1.36 Bohr mag/cell

     iteration # 47     ecut=   300.00 Ry     beta= 0.20
     Davidson diagonalization with overlap
     ethr =  1.22E-10,  avg # of iterations =  4.0

     negative rho (up, down):  1.632E-04 7.851E-05

     total cpu time spent up to now is      158.2 secs

     total energy              =    -181.04180332 Ry
     estimated scf accuracy    <       0.00000001 Ry

     total magnetization       =     1.00 Bohr mag/cell
     absolute magnetization    =     1.36 Bohr mag/cell

     iteration # 48     ecut=   300.00 Ry     beta= 0.20
     Davidson diagonalization with overlap
     ethr =  5.21E-11,  avg # of iterations =  2.1

     negative rho (up, down):  1.630E-04 7.843E-05

     total cpu time spent up to now is      162.0 secs

     total energy              =    -181.04180326 Ry
     estimated scf accuracy    <          1.8E-09 Ry

     total magnetization       =     1.00 Bohr mag/cell
     absolute magnetization    =     1.36 Bohr mag/cell

     iteration # 49     ecut=   300.00 Ry     beta= 0.20
     Davidson diagonalization with overlap
     ethr =  7.24E-12,  avg # of iterations =  4.4

     negative rho (up, down):  1.638E-04 7.907E-05

     total cpu time spent up to now is      165.9 secs

     total energy              =    -181.04180329 Ry
     estimated scf accuracy    <          1.7E-09 Ry

     total magnetization       =     1.00 Bohr mag/cell
     absolute magnetization    =     1.36 Bohr mag/cell

     iteration # 50     ecut=   300.00 Ry     beta= 0.20
     Davidson diagonalization with overlap
     ethr =  6.74E-12,  avg # of iterations =  2.0

     negative rho (up, down):  1.655E-04 8.053E-05

     Magnetic moment per site:
     atom:    1    charge:   10.9880    magn:    0.9516    constr:    0.0000
     atom:    2    charge:    3.6837    magn:   -0.0639    constr:    0.0000
     atom:    3    charge:    3.6837    magn:   -0.0639    constr:    0.0000

     total cpu time spent up to now is      167.6 secs

     End of self-consistent calculation

 ------ SPIN UP ------------


          k = 0.0000 0.0000 0.0000 (113663 PWs)   bands (ev):

   -65.3664 -39.5582 -39.5582 -39.4458 -15.0965 -13.9881  -6.2158  -2.9376
    -2.9376  -2.4895  -1.9218  -1.9218  -1.2539   1.6103   1.6103   1.6723
     1.6723

          k = 0.0000 0.1925 0.0000 (113662 PWs)   bands (ev):

   -65.3643 -39.5803 -39.5634 -39.4415 -14.7578 -13.7395  -5.8440  -3.7871
    -3.1102  -2.7179  -2.3338  -1.8967  -1.4340   0.5981   0.8486   1.1006
     1.8350

          k = 0.0000 0.3849 0.0000 (113582 PWs)   bands (ev):

   -65.3601 -39.6242 -39.5738 -39.4331 -13.9392 -13.1453  -5.6857  -4.9119
    -4.6366  -2.9814  -2.2712  -2.2124  -1.9116   0.0691   0.1931   1.3017
     2.0938

          k = 0.0000-0.5774 0.0000 (113488 PWs)   bands (ev):

   -65.3580 -39.6460 -39.5790 -39.4289 -13.4109 -12.7734  -6.6174  -5.5349
    -4.5799  -3.2517  -2.3539  -1.8980  -1.8579  -0.2240  -0.0419   1.8851
     2.1673

          k = 0.1667 0.2887 0.0000 (113591 PWs)   bands (ev):

   -65.3611 -39.6092 -39.5753 -39.4352 -14.1714 -13.3106  -5.3395  -4.7825
    -3.9646  -3.3002  -2.7865  -1.8777  -1.7041   0.1376   0.2386   0.7375
     2.0006

          k = 0.1667 0.4811 0.0000 (113553 PWs)   bands (ev):

   -65.3580 -39.6350 -39.5901 -39.4289 -13.4387 -12.7814  -6.0874  -5.2238
    -4.5527  -3.6338  -3.4024  -2.3000  -1.5317  -0.2370   0.1765   1.2489
     2.0431

          k = 0.3333 0.5774 0.0000 (113370 PWs)   bands (ev):

   -65.3570 -39.6247 -39.6140 -39.4268 -13.1704 -12.5789  -5.4156  -5.3610
    -5.1718  -4.3175  -4.0600  -2.4686  -1.2218  -0.5986   0.6326   1.0024
     2.1894

 ------ SPIN DOWN ----------


          k = 0.0000 0.0000 0.0000 (113663 PWs)   bands (ev):

   -64.2519 -38.4129 -38.4129 -38.4099 -15.1242 -14.0634  -5.9827  -2.5154
    -2.3198  -2.3198  -1.5864  -1.5864   0.0321   1.7349   1.7349   2.0968
     2.0968

          k = 0.0000 0.1925 0.0000 (113662 PWs)   bands (ev):

   -64.2497 -38.4362 -38.4184 -38.4052 -14.7912 -13.8166  -5.6272  -3.3901
    -2.9799  -2.1773  -2.0518  -1.8867  -0.1959   1.1716   1.3536   1.6329
     2.0281

          k = 0.0000 0.3849 0.0000 (113582 PWs)   bands (ev):

   -64.2454 -38.4826 -38.4292 -38.3958 -13.9892 -13.2276  -5.4992  -4.7344
    -4.5938  -2.7557  -2.1998  -1.9278  -0.8063   1.0489   1.2838   1.6667
     2.3607

          k = 0.0000-0.5774 0.0000 (113488 PWs)   bands (ev):

   -64.2432 -38.5056 -38.4347 -38.3911 -13.4751 -12.8597  -6.4779  -5.5200
    -4.3748  -3.0436  -2.2213  -1.8366  -0.8576   0.8949   1.3676   2.2151
     2.4562

          k = 0.1667 0.2887 0.0000 (113591 PWs)   bands (ev):

   -64.2465 -38.4668 -38.4308 -38.3982 -14.2161 -13.3913  -5.1355  -4.5652
    -3.8977  -3.1103  -2.4831  -1.8424  -0.5590   0.9798   1.1204   1.3394
     2.3107

          k = 0.1667 0.4811 0.0000 (113553 PWs)   bands (ev):

   -64.2432 -38.4941 -38.4463 -38.3911 -13.5011 -12.8676  -5.9376  -5.1870
    -4.3715  -3.5057  -3.2412  -2.1699  -0.4996   1.0988   1.2901   1.6072
     2.3980

          k = 0.3333 0.5774 0.0000 (113370 PWs)   bands (ev):

   -64.2421 -38.4840 -38.4707 -38.3888 -13.2395 -12.6678  -5.2898  -5.2411
    -5.0740  -4.1523  -4.0447  -2.2856  -0.1662   0.9150   1.3956   1.6932
     2.5538

     the spin up/dw Fermi energies are    -0.8463   -1.1121 ev

!    total energy              =    -181.04242433 Ry
     estimated scf accuracy    <          9.2E-12 Ry
     smearing contrib. (-TS)   =      -0.00000000 Ry
     internal energy E=F+TS    =    -181.04242433 Ry

     The total energy is F=E-TS. E is the sum of the following terms:
     one-electron contribution =    -967.25790082 Ry
     hartree contribution      =     483.18135551 Ry
     xc contribution           =     -25.59481166 Ry
     ewald contribution        =     328.62893264 Ry

     total magnetization       =     1.00 Bohr mag/cell
     absolute magnetization    =     1.40 Bohr mag/cell

     convergence has been achieved in  30 iterations

     Forces acting on atoms (cartesian axes, Ry/au):

     atom    1 type  2   force =     0.00000000   -0.00000000    0.00000000
     atom    2 type  1   force =     0.00000000   -0.00000000   -0.00016599
     atom    3 type  1   force =     0.00000000   -0.00000000    0.00016599

     Total force =     0.000235     Total SCF correction =     0.000001


     Computing stress (Cartesian axis) and pressure

          total   stress  (Ry/bohr**3)                   (kbar)     P=       -0.02
   0.00000036  -0.00000000  -0.00000000            0.05       -0.00       -0.00
  -0.00000000   0.00000036  -0.00000000           -0.00        0.05       -0.00
   0.00000000   0.00000000  -0.00000109            0.00        0.00       -0.16

     Energy error            =      3.2E-06
     Gradient error          =      1.7E-04
     Cell gradient error     =      1.1E-06


     number of scf cycles    =   8
     number of bfgs steps    =   7

     enthalpy old            =    -181.0424211136 Ry
     enthalpy new            =    -181.0424243269 Ry

     CASE: enthalpy_new < enthalpy_old

     new trust radius        =       0.0012203976 bohr
ibrav =      4
 celldm(1) =      6.31612833
 celldm(3) =      5.99537677
Input lattice vectors:
     1.00385981    -0.00000000     0.00000000
    -0.50192990     0.86936809    -0.00000000
    -0.00000000    -0.00000000     6.01851776
New lattice vectors in INITIAL alat:
     1.00385981     0.00000000     0.00000000
    -0.50192990     0.86936809     0.00000000
     0.00000000     0.00000000     6.01851776
New lattice vectors in NEW alat (for information only):
     1.00000000     0.00000000     0.00000000
    -0.50000000     0.86602540     0.00000000
     0.00000000     0.00000000     5.99537677
Discrepancy in bohr =     0.000000    0.000000    0.000000
     new conv_thr            =            1.0E-11 Ry

     new unit-cell volume =   1308.27773 a.u.^3 (   193.86676 Ang^3 )
     density =      1.78898 g/cm^3

CELL_PARAMETERS (alat=  6.29184303)
   1.003859806   0.000000000   0.000000000
  -0.501929903   0.869368094   0.000000000
   0.000000000   0.000000000   6.018517763

ATOMIC_POSITIONS (bohr)
V             0.0000000000        3.6466184125       18.9337846083
Se            3.1580641783        1.8233092012       21.9496348071
Se            3.1580641783        1.8233092012       15.9179344095



     Writing output data file pwscf_output/pwscf.save/
     NEW-OLD atomic charge density approx. for the potential

     negative rho (up, down):  1.267E-04 1.278E-04
     extrapolated charge   25.00253, renormalised to   25.00000
     Generating pointlists ...

     total cpu time spent up to now is      765.1 secs

     Self-consistent Calculation

     iteration #  1     ecut=   300.00 Ry     beta= 0.20
     Davidson diagonalization with overlap
     ethr =  1.00E-06,  avg # of iterations =  2.0

     negative rho (up, down):  1.508E-04 1.138E-04

     total cpu time spent up to now is      768.7 secs

     total energy              =    -181.04239169 Ry
     estimated scf accuracy    <       0.00022132 Ry

     total magnetization       =     1.00 Bohr mag/cell
     absolute magnetization    =     1.40 Bohr mag/cell

     iteration #  2     ecut=   300.00 Ry     beta= 0.20
     Davidson diagonalization with overlap
     ethr =  8.85E-07,  avg # of iterations =  1.0

     negative rho (up, down):  1.546E-04 1.082E-04

     total cpu time spent up to now is      772.0 secs

     total energy              =    -181.04242511 Ry
     estimated scf accuracy    <       0.00001481 Ry

     total magnetization       =     1.00 Bohr mag/cell
     absolute magnetization    =     1.40 Bohr mag/cell

     iteration #  3     ecut=   300.00 Ry     beta= 0.20
     Davidson diagonalization with overlap
     ethr =  5.92E-08,  avg # of iterations =  2.6

     negative rho (up, down):  1.439E-04 1.275E-04

     total cpu time spent up to now is      783.0 secs

     total energy              =    -181.04242818 Ry
     estimated scf accuracy    <       0.00000967 Ry

     total magnetization       =     1.00 Bohr mag/cell
     absolute magnetization    =     1.40 Bohr mag/cell

     iteration #  4     ecut=   300.00 Ry     beta= 0.20
     Davidson diagonalization with overlap
     ethr =  3.87E-08,  avg # of iterations =  3.2

     negative rho (up, down):  1.726E-04 8.130E-05

     total cpu time spent up to now is      787.1 secs

     total energy              =    -181.04242196 Ry
     estimated scf accuracy    <       0.00004081 Ry

     total magnetization       =     1.00 Bohr mag/cell
     absolute magnetization    =     1.40 Bohr mag/cell

     iteration #  5     ecut=   300.00 Ry     beta= 0.20
     Davidson diagonalization with overlap
     ethr =  3.87E-08,  avg # of iterations =  1.7

     negative rho (up, down):  1.715E-04 7.943E-05

     total cpu time spent up to now is      792.7 secs

     total energy              =    -181.04242439 Ry
     estimated scf accuracy    <       0.00000202 Ry

     total magnetization       =     1.00 Bohr mag/cell
     absolute magnetization    =     1.40 Bohr mag/cell

     iteration #  6     ecut=   300.00 Ry     beta= 0.20
     Davidson diagonalization with overlap
     ethr =  8.08E-09,  avg # of iterations =  2.0

     negative rho (up, down):  1.634E-04 8.439E-05

     total cpu time spent up to now is      796.3 secs

     total energy              =    -181.04242495 Ry
     estimated scf accuracy    <       0.00000284 Ry

     total magnetization       =     1.00 Bohr mag/cell
     absolute magnetization    =     1.40 Bohr mag/cell

     iteration #  7     ecut=   300.00 Ry     beta= 0.20
     Davidson diagonalization with overlap
     ethr =  8.08E-09,  avg # of iterations =  1.6

     negative rho (up, down):  1.613E-04 8.352E-05

     total cpu time spent up to now is      799.9 secs

     total energy              =    -181.04242493 Ry
     estimated scf accuracy    <       0.00000952 Ry

     total magnetization       =     1.00 Bohr mag/cell
     absolute magnetization    =     1.40 Bohr mag/cell

     iteration #  8     ecut=   300.00 Ry     beta= 0.20
     Davidson diagonalization with overlap
     ethr =  8.08E-09,  avg # of iterations =  1.0

     negative rho (up, down):  1.601E-04 8.259E-05

     total cpu time spent up to now is      803.5 secs

     total energy              =    -181.04242472 Ry
     estimated scf accuracy    <       0.00000728 Ry

     total magnetization       =     1.00 Bohr mag/cell
     absolute magnetization    =     1.40 Bohr mag/cell

     iteration #  9     ecut=   300.00 Ry     beta= 0.20
     Davidson diagonalization with overlap
     ethr =  8.08E-09,  avg # of iterations =  1.0

     negative rho (up, down):  1.596E-04 8.185E-05

     total cpu time spent up to now is      806.2 secs

     total energy              =    -181.04242456 Ry
     estimated scf accuracy    <       0.00000574 Ry

     total magnetization       =     1.00 Bohr mag/cell
     absolute magnetization    =     1.40 Bohr mag/cell

     iteration # 10     ecut=   300.00 Ry     beta= 0.20
     Davidson diagonalization with overlap
     ethr =  8.08E-09,  avg # of iterations =  1.0

     negative rho (up, down):  1.720E-04 7.361E-05

     total cpu time spent up to now is      808.4 secs

     total energy              =    -181.04242371 Ry
     estimated scf accuracy    <       0.00000465 Ry

     total magnetization       =     1.00 Bohr mag/cell
     absolute magnetization    =     1.40 Bohr mag/cell

     iteration # 11     ecut=   300.00 Ry     beta= 0.20
     Davidson diagonalization with overlap
     ethr =  8.08E-09,  avg # of iterations =  2.0

     negative rho (up, down):  1.740E-04 7.612E-05

     total cpu time spent up to now is      811.2 secs

     total energy              =    -181.04242413 Ry
     estimated scf accuracy    <       0.00000003 Ry

     total magnetization       =     1.00 Bohr mag/cell
     absolute magnetization    =     1.40 Bohr mag/cell

     iteration # 12     ecut=   300.00 Ry     beta= 0.20
     Davidson diagonalization with overlap
     ethr =  1.26E-10,  avg # of iterations =  6.1

     negative rho (up, down):  1.750E-04 7.929E-05

     total cpu time spent up to now is      814.7 secs

     total energy              =    -181.04242429 Ry
     estimated scf accuracy    <          6.9E-09 Ry

     total magnetization       =     1.00 Bohr mag/cell
     absolute magnetization    =     1.40 Bohr mag/cell

     iteration # 13     ecut=   300.00 Ry     beta= 0.20
     Davidson diagonalization with overlap
     ethr =  2.76E-11,  avg # of iterations =  3.9

     negative rho (up, down):  1.748E-04 8.289E-05

     total cpu time spent up to now is      818.8 secs

     total energy              =    -181.04242440 Ry
     estimated scf accuracy    <       0.00000001 Ry

     total magnetization       =     1.00 Bohr mag/cell
     absolute magnetization    =     1.40 Bohr mag/cell

     iteration # 14     ecut=   300.00 Ry     beta= 0.20
     Davidson diagonalization with overlap
     ethr =  2.76E-11,  avg # of iterations =  2.0

     negative rho (up, down):  1.755E-04 8.416E-05

     total cpu time spent up to now is      822.4 secs

     total energy              =    -181.04242449 Ry
     estimated scf accuracy    <          1.3E-09 Ry

     total magnetization       =     1.00 Bohr mag/cell
     absolute magnetization    =     1.40 Bohr mag/cell

     iteration # 15     ecut=   300.00 Ry     beta= 0.20
     Davidson diagonalization with overlap
     ethr =  5.04E-12,  avg # of iterations =  4.3

     negative rho (up, down):  1.759E-04 8.380E-05

     total cpu time spent up to now is      825.9 secs

     total energy              =    -181.04242452 Ry
     estimated scf accuracy    <          6.3E-10 Ry

     total magnetization       =     1.00 Bohr mag/cell
     absolute magnetization    =     1.40 Bohr mag/cell

     iteration # 16     ecut=   300.00 Ry     beta= 0.20
     Davidson diagonalization with overlap
     ethr =  2.51E-12,  avg # of iterations =  1.7

     negative rho (up, down):  1.772E-04 8.453E-05

     total cpu time spent up to now is      830.2 secs

     total energy              =    -181.04242452 Ry
     estimated scf accuracy    <          2.4E-10 Ry

     total magnetization       =     1.00 Bohr mag/cell
     absolute magnetization    =     1.40 Bohr mag/cell

     iteration # 17     ecut=   300.00 Ry     beta= 0.20
     Davidson diagonalization with overlap
     ethr =  9.46E-13,  avg # of iterations =  2.9

     negative rho (up, down):  1.774E-04 8.456E-05

     total cpu time spent up to now is      833.5 secs

     total energy              =    -181.04242456 Ry
     estimated scf accuracy    <          9.5E-11 Ry

     total magnetization       =     1.00 Bohr mag/cell
     absolute magnetization    =     1.40 Bohr mag/cell

     iteration # 18     ecut=   300.00 Ry     beta= 0.20
     Davidson diagonalization with overlap
     ethr =  3.81E-13,  avg # of iterations =  2.2

     negative rho (up, down):  1.775E-04 8.459E-05

     total cpu time spent up to now is      836.2 secs

     total energy              =    -181.04242456 Ry
     estimated scf accuracy    <          1.0E-10 Ry

     total magnetization       =     1.00 Bohr mag/cell
     absolute magnetization    =     1.40 Bohr mag/cell

     iteration # 19     ecut=   300.00 Ry     beta= 0.20
     Davidson diagonalization with overlap
     ethr =  3.81E-13,  avg # of iterations =  1.1

     negative rho (up, down):  1.775E-04 8.466E-05

     total cpu time spent up to now is      840.0 secs

     total energy              =    -181.04242457 Ry
     estimated scf accuracy    <          3.2E-11 Ry

     total magnetization       =     1.00 Bohr mag/cell
     absolute magnetization    =     1.40 Bohr mag/cell

     iteration # 20     ecut=   300.00 Ry     beta= 0.20
     Davidson diagonalization with overlap
     ethr =  1.27E-13,  avg # of iterations =  3.4

     negative rho (up, down):  1.775E-04 8.467E-05

     Magnetic moment per site:
     atom:    1    charge:   10.9638    magn:    0.9711    constr:    0.0000
     atom:    2    charge:    3.6713    magn:   -0.0709    constr:    0.0000
     atom:    3    charge:    3.6713    magn:   -0.0709    constr:    0.0000

     total cpu time spent up to now is      841.9 secs

     End of self-consistent calculation

 ------ SPIN UP ------------


          k = 0.0000 0.0000 0.0000 (113663 PWs)   bands (ev):

   -65.4434 -39.6304 -39.6304 -39.5174 -15.0286 -13.9861  -6.1826  -2.9100
    -2.9100  -2.5571  -1.9296  -1.9296  -1.3303   1.5098   1.5098   1.5520
     1.5520

          k = 0.0000 0.1917 0.0000 (113662 PWs)   bands (ev):

   -65.4415 -39.6512 -39.6354 -39.5134 -14.6963 -13.7397  -5.8119  -3.7532
    -3.1221  -2.6957  -2.3325  -1.9557  -1.5004   0.4921   0.7496   0.9969
     1.7196

          k = 0.0000 0.3834 0.0000 (113582 PWs)   bands (ev):

   -65.4376 -39.6925 -39.6452 -39.5056 -13.8940 -13.1518  -5.6297  -4.9015
    -4.6218  -2.9677  -2.3414  -2.2036  -1.9494  -0.0208   0.1122   1.1863
     1.9593

          k = 0.0000-0.5751 0.0000 (113488 PWs)   bands (ev):

   -65.4357 -39.7130 -39.6501 -39.5017 -13.3776 -12.7850  -6.5630  -5.5135
    -4.5596  -3.2334  -2.4202  -1.8982  -1.8925  -0.2945  -0.1177   1.7541
     2.0266

          k = 0.1660 0.2876 0.0000 (113591 PWs)   bands (ev):

   -65.4386 -39.6783 -39.6466 -39.5076 -14.1213 -13.3152  -5.2880  -4.7715
    -3.9513  -3.2994  -2.7734  -1.9445  -1.7442   0.0419   0.1548   0.6403
     1.8672

          k = 0.1660 0.4793 0.0000 (113553 PWs)   bands (ev):

   -65.4357 -39.7026 -39.6605 -39.5017 -13.4043 -12.7930  -6.0369  -5.1962
    -4.5376  -3.6242  -3.3922  -2.3658  -1.5637  -0.3046   0.0885   1.1364
     1.9042

          k = 0.3321 0.5751 0.0000 (113370 PWs)   bands (ev):

   -65.4347 -39.6928 -39.6832 -39.4997 -13.1417 -12.5940  -5.3848  -5.3144
    -5.1259  -4.3093  -4.0663  -2.5297  -1.2677  -0.6479   0.5339   0.8921
     2.0470

 ------ SPIN DOWN ----------


          k = 0.0000 0.0000 0.0000 (113663 PWs)   bands (ev):

   -64.3040 -38.4602 -38.4587 -38.4587 -15.0670 -14.0724  -5.9525  -2.5905
    -2.2785  -2.2785  -1.5861  -1.5861  -0.0252   1.6368   1.6368   1.9766
     1.9766

          k = 0.0000 0.1917 0.0000 (113662 PWs)   bands (ev):

   -64.3020 -38.4807 -38.4639 -38.4558 -14.7406 -13.8278  -5.5984  -3.3562
    -2.9980  -2.1456  -2.0449  -1.9499  -0.2413   1.0863   1.2608   1.5342
     1.9177

          k = 0.0000 0.3834 0.0000 (113582 PWs)   bands (ev):

   -64.2980 -38.5243 -38.4742 -38.4470 -13.9553 -13.2451  -5.4492  -4.7285
    -4.5861  -2.7393  -2.2747  -1.9218  -0.8219   0.9861   1.2121   1.5664
     2.2342

          k = 0.0000-0.5751 0.0000 (113488 PWs)   bands (ev):

   -64.2960 -38.5460 -38.4793 -38.4427 -13.4532 -12.8823  -6.4305  -5.5068
    -4.3582  -3.0236  -2.2899  -1.8466  -0.8723   0.8500   1.3129   2.0978
     2.3243

          k = 0.1660 0.2876 0.0000 (113591 PWs)   bands (ev):

   -64.2990 -38.5094 -38.4757 -38.4492 -14.1772 -13.4069  -5.0892  -4.5583
    -3.8911  -3.1098  -2.4704  -1.9147  -0.5777   0.9077   1.0398   1.2666
     2.1873

          k = 0.1660 0.4793 0.0000 (113553 PWs)   bands (ev):

   -64.2960 -38.5351 -38.4903 -38.4427 -13.4781 -12.8903  -5.8942  -5.1668
    -4.3594  -3.4988  -3.2356  -2.2390  -0.5131   1.0459   1.2312   1.5088
     2.2725

          k = 0.3321 0.5751 0.0000 (113370 PWs)   bands (ev):

   -64.2950 -38.5254 -38.5134 -38.4405 -13.2223 -12.6940  -5.2470  -5.2180
    -5.0357  -4.1450  -4.0619  -2.3475  -0.1888   0.8874   1.3009   1.6136
     2.4255

     the spin up/dw Fermi energies are    -0.9721   -1.2376 ev

!    total energy              =    -181.04242457 Ry
     estimated scf accuracy    <          1.3E-12 Ry
     smearing contrib. (-TS)   =      -0.00000000 Ry
     internal energy E=F+TS    =    -181.04242457 Ry

     The total energy is F=E-TS. E is the sum of the following terms:
     one-electron contribution =    -966.95398459 Ry
     hartree contribution      =     483.02768815 Ry
     xc contribution           =     -25.59467517 Ry
     ewald contribution        =     328.47854704 Ry

     total magnetization       =     1.00 Bohr mag/cell
     absolute magnetization    =     1.40 Bohr mag/cell

     convergence has been achieved in  20 iterations

     Forces acting on atoms (cartesian axes, Ry/au):

     atom    1 type  2   force =     0.00000000    0.00000000    0.00000000
     atom    2 type  1   force =     0.00000000    0.00000000   -0.00002316
     atom    3 type  1   force =    -0.00000000    0.00000000    0.00002316

     Total force =     0.000033     Total SCF correction =     0.000000


     Computing stress (Cartesian axis) and pressure

          total   stress  (Ry/bohr**3)                   (kbar)     P=       -0.03
  -0.00000010  -0.00000000   0.00000000           -0.02       -0.00        0.00
  -0.00000000  -0.00000010  -0.00000000           -0.00       -0.02       -0.00
   0.00000000   0.00000000  -0.00000041            0.00        0.00       -0.06

     Energy error            =      2.4E-07
     Gradient error          =      2.3E-05
     Cell gradient error     =      4.1E-07

ibrav =      4
 celldm(1) =      6.31612833
 celldm(3) =      5.99537677
Input lattice vectors:
     1.00385981     0.00000000     0.00000000
    -0.50192990     0.86936809     0.00000000
     0.00000000     0.00000000     6.01851776
New lattice vectors in INITIAL alat:
     1.00385981     0.00000000     0.00000000
    -0.50192990     0.86936809     0.00000000
     0.00000000     0.00000000     6.01851776
New lattice vectors in NEW alat (for information only):
     1.00000000     0.00000000     0.00000000
    -0.50000000     0.86602540     0.00000000
     0.00000000     0.00000000     5.99537677
Discrepancy in bohr =     0.000000    0.000000    0.000000

     bfgs converged in   9 scf cycles and   8 bfgs steps
     (criteria: energy <  1.0E-04 Ry, force <  8.0E-05Ry/Bohr, cell <  4.0E-01kbar)

     End of BFGS Geometry Optimization

     Final enthalpy =    -181.0424245687 Ry

     File pwscf_output/pwscf.bfgs deleted, as requested
Begin final coordinates
     new unit-cell volume =   1308.27773 a.u.^3 (   193.86676 Ang^3 )
     density =      1.78898 g/cm^3

CELL_PARAMETERS (alat=  6.29184303)
   1.003859806   0.000000000   0.000000000
  -0.501929903   0.869368094   0.000000000
   0.000000000   0.000000000   6.018517763

ATOMIC_POSITIONS (bohr)
V             0.0000000000        3.6466184125       18.9337846083
Se            3.1580641783        1.8233092012       21.9496348071
Se            3.1580641783        1.8233092012       15.9179344095
End final coordinates



     Writing output data file pwscf_output/pwscf.save/

     Final scf calculation at the relaxed structure.
     The G-vectors are recalculated for the final unit cell
     Results may differ from those at the preceding step.

     Parallelization info
     --------------------
     sticks:   dense  smooth     PW     G-vecs:    dense   smooth      PW
     Min          41      41     22                 8115     8115    3202
     Max          42      42     23                 8134     8134    3222
     Sum        1651    1651    889               324961   324961  128353



     bravais-lattice index     =            4
     lattice parameter (alat)  =       6.2918  a.u.
     unit-cell volume          =    1308.2777 (a.u.)^3
     number of atoms/cell      =            3
     number of atomic types    =            2
     number of electrons       =        25.00 (up:  13.00, down:  12.00)
     number of Kohn-Sham states=           17
     kinetic-energy cutoff     =     300.0000  Ry
     charge density cutoff     =     600.0000  Ry
     scf convergence threshold =      1.0E-11
     mixing beta               =       0.2000
     number of iterations used =            8  local-TF  mixing
     press convergence thresh. =      4.0E-01
     Exchange-correlation= PBE
                           (   1   4   3   4   0   0   0)

     celldm(1)=   6.291843  celldm(2)=   0.000000  celldm(3)=   6.000000
     celldm(4)=   0.000000  celldm(5)=   0.000000  celldm(6)=   0.000000

     crystal axes: (cart. coord. in units of alat)
               a(1) = (   1.003860   0.000000   0.000000 )  
               a(2) = (  -0.501930   0.869368   0.000000 )  
               a(3) = (   0.000000   0.000000   6.018518 )  

     reciprocal axes: (cart. coord. in units 2 pi/alat)
               b(1) = (  0.996155  0.575130 -0.000000 )  
               b(2) = (  0.000000  1.150261  0.000000 )  
               b(3) = (  0.000000 -0.000000  0.166154 )  


     PseudoPot. # 1 for Se read from file:
     ./Se.BFD-lp.upf
     MD5 check sum: 8511c50dca8a54f81d7f29e5971a2e0c
     Pseudo is Norm-conserving, Zval =  6.0
     Generated by new atomic code, or converted to UPF format
     Using radial grid of 2000 points,  3 beta functions with: 
                l(1) =   0
                l(2) =   2
                l(3) =   3

     PseudoPot. # 2 for V  read from file:
     ./V.opt.upf
     MD5 check sum: bc1a3e0eba4eeb885e5717773f816659
     Pseudo is Norm-conserving, Zval = 13.0
     Generated by new atomic code, or converted to UPF format
     Using radial grid of 1157 points,  2 beta functions with: 
                l(1) =   0
                l(2) =   2

     atomic species   valence    mass     pseudopotential
        Se             6.00    78.96000     Se( 1.00)
        V             13.00    50.94200     V ( 1.00)

     Starting magnetic structure 
     atomic species   magnetization
        Se          -0.019
        V            0.089

     12 Sym. Ops. (no inversion) found



   Cartesian axes

     site n.     atom                  positions (alat units)
         1           V   tau(   1) = (   0.0000000   0.5795787   3.0092589  )
         2           Se  tau(   2) = (   0.5019299   0.2897894   3.4885859  )
         3           Se  tau(   3) = (   0.5019299   0.2897894   2.5299319  )

     number of k points=     7  Gaussian smearing, width (Ry)=  0.0020
                       cart. coord. in units 2pi/alat
        k(    1) = (   0.0000000   0.0000000   0.0000000), wk =   0.0277778
        k(    2) = (   0.0000000   0.1917101   0.0000000), wk =   0.1666667
        k(    3) = (   0.0000000   0.3834203   0.0000000), wk =   0.1666667
        k(    4) = (   0.0000000  -0.5751304   0.0000000), wk =   0.0833333
        k(    5) = (   0.1660258   0.2875652   0.0000000), wk =   0.1666667
        k(    6) = (   0.1660258   0.4792753   0.0000000), wk =   0.3333333
        k(    7) = (   0.3320517   0.5751304   0.0000000), wk =   0.0555556

     Dense  grid:   324961 G-vectors     FFT dimensions: (  50,  50, 300)

     Estimated max dynamical RAM per process >      27.71 MB

     Estimated total dynamical RAM >       1.08 GB
     Generating pointlists ...

     Initial potential from superposition of free atoms

     starting charge    9.95493, renormalised to   25.00000

     negative rho (up, down):  4.479E-04 3.678E-04
     Starting wfcs are   41 randomized atomic wfcs

     total cpu time spent up to now is      847.7 secs

     Self-consistent Calculation

     iteration #  1     ecut=   300.00 Ry     beta= 0.20
     Davidson diagonalization with overlap
     c_bands:  5 eigenvalues not converged
     c_bands:  3 eigenvalues not converged
     c_bands:  2 eigenvalues not converged
     c_bands:  4 eigenvalues not converged
     c_bands:  1 eigenvalues not converged
     c_bands:  1 eigenvalues not converged
     c_bands:  4 eigenvalues not converged
     c_bands:  5 eigenvalues not converged
     c_bands:  1 eigenvalues not converged
     c_bands:  3 eigenvalues not converged
     c_bands:  2 eigenvalues not converged
     c_bands:  4 eigenvalues not converged
     ethr =  1.00E-06,  avg # of iterations = 60.7

     negative rho (up, down):  4.923E-02 1.053E-01

     total cpu time spent up to now is      881.8 secs

     total energy              =    -407.96417106 Ry
     estimated scf accuracy    <     879.09995989 Ry

     total magnetization       =     1.00 Bohr mag/cell
     absolute magnetization    =     1.00 Bohr mag/cell

     iteration #  2     ecut=   300.00 Ry     beta= 0.20
     Davidson diagonalization with overlap
     ethr =  1.00E-02,  avg # of iterations =  5.6

     negative rho (up, down):  1.593E-01 2.781E-01

     total cpu time spent up to now is      885.0 secs

     total energy              =    -346.23413163 Ry
     estimated scf accuracy    <     579.10632224 Ry

     total magnetization       =     1.00 Bohr mag/cell
     absolute magnetization    =     1.01 Bohr mag/cell

     iteration #  3     ecut=   300.00 Ry     beta= 0.20
     Davidson diagonalization with overlap
     ethr =  1.00E-02,  avg # of iterations =  5.7

     negative rho (up, down):  6.317E-01 1.248E+00

     total cpu time spent up to now is      888.1 secs

     total energy              =    -155.76791237 Ry
     estimated scf accuracy    <     426.83726274 Ry

     total magnetization       =     1.00 Bohr mag/cell
     absolute magnetization    =     1.04 Bohr mag/cell

     iteration #  4     ecut=   300.00 Ry     beta= 0.20
     Davidson diagonalization with overlap
     ethr =  1.00E-02,  avg # of iterations = 11.2

     negative rho (up, down):  4.905E-01 1.031E+00

     total cpu time spent up to now is      894.5 secs

     total energy              =    -185.30798077 Ry
     estimated scf accuracy    <      22.31993780 Ry

     total magnetization       =     1.00 Bohr mag/cell
     absolute magnetization    =     1.04 Bohr mag/cell

     iteration #  5     ecut=   300.00 Ry     beta= 0.20
     Davidson diagonalization with overlap
     ethr =  1.00E-02,  avg # of iterations =  2.1

     negative rho (up, down):  3.604E-01 2.751E-01

     total cpu time spent up to now is      896.6 secs

     total energy              =    -175.25932805 Ry
     estimated scf accuracy    <      14.26622020 Ry

     total magnetization       =     1.00 Bohr mag/cell
     absolute magnetization    =     1.02 Bohr mag/cell

     iteration #  6     ecut=   300.00 Ry     beta= 0.20
     Davidson diagonalization with overlap
     ethr =  1.00E-02,  avg # of iterations = 13.3

     negative rho (up, down):  2.327E-01 2.445E-01

     total cpu time spent up to now is      902.8 secs

     total energy              =    -182.97786250 Ry
     estimated scf accuracy    <      73.76367939 Ry

     total magnetization       =     1.00 Bohr mag/cell
     absolute magnetization    =     1.00 Bohr mag/cell

     iteration #  7     ecut=   300.00 Ry     beta= 0.20
     Davidson diagonalization with overlap
     ethr =  1.00E-02,  avg # of iterations =  2.6

     negative rho (up, down):  1.283E-01 1.473E-01

     total cpu time spent up to now is      905.6 secs

     total energy              =    -171.48866544 Ry
     estimated scf accuracy    <      35.58741627 Ry

     total magnetization       =     1.00 Bohr mag/cell
     absolute magnetization    =     1.00 Bohr mag/cell

     iteration #  8     ecut=   300.00 Ry     beta= 0.20
     Davidson diagonalization with overlap
     ethr =  1.00E-02,  avg # of iterations =  6.4

     negative rho (up, down):  1.309E-01 1.132E-01

     total cpu time spent up to now is      909.0 secs

     total energy              =    -183.24205272 Ry
     estimated scf accuracy    <      10.59156721 Ry

     total magnetization       =     1.00 Bohr mag/cell
     absolute magnetization    =     1.00 Bohr mag/cell

     iteration #  9     ecut=   300.00 Ry     beta= 0.20
     Davidson diagonalization with overlap
     ethr =  1.00E-02,  avg # of iterations =  1.1

     negative rho (up, down):  1.297E-01 9.294E-02

     total cpu time spent up to now is      910.9 secs

     total energy              =    -177.78283898 Ry
     estimated scf accuracy    <       8.78307564 Ry

     total magnetization       =     1.00 Bohr mag/cell
     absolute magnetization    =     1.00 Bohr mag/cell

     iteration # 10     ecut=   300.00 Ry     beta= 0.20
     Davidson diagonalization with overlap
     ethr =  1.00E-02,  avg # of iterations =  9.4

     negative rho (up, down):  3.424E-02 4.254E-02

     total cpu time spent up to now is      915.1 secs

     total energy              =    -180.13377983 Ry
     estimated scf accuracy    <      34.72134215 Ry

     total magnetization       =     1.00 Bohr mag/cell
     absolute magnetization    =     1.43 Bohr mag/cell

     iteration # 11     ecut=   300.00 Ry     beta= 0.20
     Davidson diagonalization with overlap
     ethr =  1.00E-02,  avg # of iterations =  2.0

     negative rho (up, down):  2.522E-02 5.659E-02

     total cpu time spent up to now is      917.5 secs

     total energy              =    -182.10253332 Ry
     estimated scf accuracy    <       4.25367510 Ry

     total magnetization       =     1.00 Bohr mag/cell
     absolute magnetization    =     1.00 Bohr mag/cell

     iteration # 12     ecut=   300.00 Ry     beta= 0.20
     Davidson diagonalization with overlap
     ethr =  1.00E-02,  avg # of iterations =  1.0

     negative rho (up, down):  1.744E-02 3.814E-02

     total cpu time spent up to now is      919.5 secs

     total energy              =    -184.54387664 Ry
     estimated scf accuracy    <      19.60948776 Ry

     total magnetization       =     1.00 Bohr mag/cell
     absolute magnetization    =     1.22 Bohr mag/cell

     iteration # 13     ecut=   300.00 Ry     beta= 0.20
     Davidson diagonalization with overlap
     ethr =  1.00E-02,  avg # of iterations =  1.1

     negative rho (up, down):  1.238E-02 2.572E-02

     total cpu time spent up to now is      921.5 secs

     total energy              =    -181.37040015 Ry
     estimated scf accuracy    <      30.59799536 Ry

     total magnetization       =     1.00 Bohr mag/cell
     absolute magnetization    =     1.42 Bohr mag/cell

     iteration # 14     ecut=   300.00 Ry     beta= 0.20
     Davidson diagonalization with overlap
     ethr =  1.00E-02,  avg # of iterations =  1.1

     negative rho (up, down):  1.683E-02 2.829E-02

     total cpu time spent up to now is      923.5 secs

     total energy              =    -179.14215143 Ry
     estimated scf accuracy    <      12.95711348 Ry

     total magnetization       =     1.00 Bohr mag/cell
     absolute magnetization    =     1.01 Bohr mag/cell

     iteration # 15     ecut=   300.00 Ry     beta= 0.20
     Davidson diagonalization with overlap
     ethr =  1.00E-02,  avg # of iterations =  2.5

     negative rho (up, down):  1.731E-02 1.299E-02

     total cpu time spent up to now is      925.8 secs

     total energy              =    -181.16442890 Ry
     estimated scf accuracy    <       1.41385064 Ry

     total magnetization       =     1.00 Bohr mag/cell
     absolute magnetization    =     1.06 Bohr mag/cell

     iteration # 16     ecut=   300.00 Ry     beta= 0.20
     Davidson diagonalization with overlap
     ethr =  5.66E-03,  avg # of iterations =  1.1

     negative rho (up, down):  1.969E-02 1.200E-02

     total cpu time spent up to now is      927.9 secs

     total energy              =    -181.02894391 Ry
     estimated scf accuracy    <       1.11256687 Ry

     total magnetization       =     1.00 Bohr mag/cell
     absolute magnetization    =     1.06 Bohr mag/cell

     iteration # 17     ecut=   300.00 Ry     beta= 0.20
     Davidson diagonalization with overlap
     ethr =  4.45E-03,  avg # of iterations =  1.0

     negative rho (up, down):  2.002E-02 1.670E-02

     total cpu time spent up to now is      930.1 secs

     total energy              =    -181.05983321 Ry
     estimated scf accuracy    <       0.36117149 Ry

     total magnetization       =     1.00 Bohr mag/cell
     absolute magnetization    =     1.06 Bohr mag/cell

     iteration # 18     ecut=   300.00 Ry     beta= 0.20
     Davidson diagonalization with overlap
     ethr =  1.44E-03,  avg # of iterations =  1.1

     negative rho (up, down):  6.011E-03 1.868E-02

     total cpu time spent up to now is      932.3 secs

     total energy              =    -181.00329345 Ry
     estimated scf accuracy    <       0.33484505 Ry

     total magnetization       =     1.00 Bohr mag/cell
     absolute magnetization    =     1.08 Bohr mag/cell

     iteration # 19     ecut=   300.00 Ry     beta= 0.20
     Davidson diagonalization with overlap
     ethr =  1.34E-03,  avg # of iterations =  1.8

     negative rho (up, down):  7.183E-03 7.104E-03

     total cpu time spent up to now is      935.1 secs

     total energy              =    -181.03384146 Ry
     estimated scf accuracy    <       0.01058105 Ry

     total magnetization       =     1.00 Bohr mag/cell
     absolute magnetization    =     1.16 Bohr mag/cell

     iteration # 20     ecut=   300.00 Ry     beta= 0.20
     Davidson diagonalization with overlap
     ethr =  4.23E-05,  avg # of iterations =  9.6

     negative rho (up, down):  5.211E-03 1.287E-02

     total cpu time spent up to now is      939.9 secs

     total energy              =    -181.05782138 Ry
     estimated scf accuracy    <       0.04659801 Ry

     total magnetization       =     1.00 Bohr mag/cell
     absolute magnetization    =     1.46 Bohr mag/cell

     iteration # 21     ecut=   300.00 Ry     beta= 0.20
     Davidson diagonalization with overlap
     ethr =  4.23E-05,  avg # of iterations =  2.7

     negative rho (up, down):  4.485E-03 1.185E-02

     total cpu time spent up to now is      942.9 secs

     total energy              =    -181.04948378 Ry
     estimated scf accuracy    <       0.21683618 Ry

     total magnetization       =     1.00 Bohr mag/cell
     absolute magnetization    =     1.55 Bohr mag/cell

     iteration # 22     ecut=   300.00 Ry     beta= 0.20
     Davidson diagonalization with overlap
     ethr =  4.23E-05,  avg # of iterations =  1.6

     negative rho (up, down):  7.283E-03 3.723E-03

     total cpu time spent up to now is      945.6 secs

     total energy              =    -181.06404944 Ry
     estimated scf accuracy    <       0.06161521 Ry

     total magnetization       =     1.00 Bohr mag/cell
     absolute magnetization    =     1.43 Bohr mag/cell

     iteration # 23     ecut=   300.00 Ry     beta= 0.20
     Davidson diagonalization with overlap
     ethr =  4.23E-05,  avg # of iterations =  2.8

     negative rho (up, down):  3.644E-03 1.390E-03

     total cpu time spent up to now is      948.3 secs

     total energy              =    -181.02471705 Ry
     estimated scf accuracy    <       0.35871499 Ry

     total magnetization       =     1.00 Bohr mag/cell
     absolute magnetization    =     1.53 Bohr mag/cell

     iteration # 24     ecut=   300.00 Ry     beta= 0.20
     Davidson diagonalization with overlap
     ethr =  4.23E-05,  avg # of iterations =  3.4

     negative rho (up, down):  2.868E-03 1.574E-03

     total cpu time spent up to now is      951.4 secs

     total energy              =    -181.04806540 Ry
     estimated scf accuracy    <       0.01660213 Ry

     total magnetization       =     1.00 Bohr mag/cell
     absolute magnetization    =     1.35 Bohr mag/cell

     iteration # 25     ecut=   300.00 Ry     beta= 0.20
     Davidson diagonalization with overlap
     ethr =  4.23E-05,  avg # of iterations =  1.9

     negative rho (up, down):  3.054E-03 2.024E-03

     total cpu time spent up to now is      954.0 secs

     total energy              =    -181.03412482 Ry
     estimated scf accuracy    <       0.13499373 Ry

     total magnetization       =     1.00 Bohr mag/cell
     absolute magnetization    =     1.41 Bohr mag/cell

     iteration # 26     ecut=   300.00 Ry     beta= 0.20
     Davidson diagonalization with overlap
     ethr =  4.23E-05,  avg # of iterations =  2.0

     negative rho (up, down):  2.741E-04 7.202E-04

     total cpu time spent up to now is      956.7 secs

     total energy              =    -181.04174861 Ry
     estimated scf accuracy    <       0.00463674 Ry

     total magnetization       =     1.00 Bohr mag/cell
     absolute magnetization    =     1.35 Bohr mag/cell

     iteration # 27     ecut=   300.00 Ry     beta= 0.20
     Davidson diagonalization with overlap
     ethr =  1.85E-05,  avg # of iterations =  2.0

     negative rho (up, down):  1.844E-03 3.186E-03

     total cpu time spent up to now is      959.3 secs

     total energy              =    -181.04203619 Ry
     estimated scf accuracy    <       0.00301713 Ry

     total magnetization       =     1.00 Bohr mag/cell
     absolute magnetization    =     1.36 Bohr mag/cell

     iteration # 28     ecut=   300.00 Ry     beta= 0.20
     Davidson diagonalization with overlap
     ethr =  1.21E-05,  avg # of iterations =  2.6

     negative rho (up, down):  8.977E-04 1.710E-03

     total cpu time spent up to now is      962.3 secs

     total energy              =    -181.04218600 Ry
     estimated scf accuracy    <       0.00119673 Ry

     total magnetization       =     1.00 Bohr mag/cell
     absolute magnetization    =     1.39 Bohr mag/cell

     iteration # 29     ecut=   300.00 Ry     beta= 0.20
     Davidson diagonalization with overlap
     ethr =  4.79E-06,  avg # of iterations =  3.3

     negative rho (up, down):  1.545E-03 7.352E-04

     total cpu time spent up to now is      965.4 secs

     total energy              =    -181.04226290 Ry
     estimated scf accuracy    <       0.00008516 Ry

     total magnetization       =     1.00 Bohr mag/cell
     absolute magnetization    =     1.39 Bohr mag/cell

     iteration # 30     ecut=   300.00 Ry     beta= 0.20
     Davidson diagonalization with overlap
     ethr =  3.41E-07,  avg # of iterations =  4.9

     negative rho (up, down):  4.819E-04 4.047E-04

     total cpu time spent up to now is      970.3 secs

     total energy              =    -181.04237231 Ry
     estimated scf accuracy    <       0.00028476 Ry

     total magnetization       =     1.00 Bohr mag/cell
     absolute magnetization    =     1.40 Bohr mag/cell

     iteration # 31     ecut=   300.00 Ry     beta= 0.20
     Davidson diagonalization with overlap
     ethr =  3.41E-07,  avg # of iterations =  2.1

     negative rho (up, down):  3.182E-04 4.306E-04

     total cpu time spent up to now is      973.8 secs

     total energy              =    -181.04240373 Ry
     estimated scf accuracy    <       0.00017538 Ry

     total magnetization       =     1.00 Bohr mag/cell
     absolute magnetization    =     1.40 Bohr mag/cell

     iteration # 32     ecut=   300.00 Ry     beta= 0.20
     Davidson diagonalization with overlap
     ethr =  3.41E-07,  avg # of iterations =  2.0

     negative rho (up, down):  2.060E-04 1.100E-04

     total cpu time spent up to now is      976.9 secs

     total energy              =    -181.04242008 Ry
     estimated scf accuracy    <       0.00002928 Ry

     total magnetization       =     1.00 Bohr mag/cell
     absolute magnetization    =     1.40 Bohr mag/cell

     iteration # 33     ecut=   300.00 Ry     beta= 0.20
     Davidson diagonalization with overlap
     ethr =  1.17E-07,  avg # of iterations =  2.4

     negative rho (up, down):  2.261E-04 9.889E-05

     total cpu time spent up to now is      980.3 secs

     total energy              =    -181.04242231 Ry
     estimated scf accuracy    <       0.00000077 Ry

     total magnetization       =     1.00 Bohr mag/cell
     absolute magnetization    =     1.40 Bohr mag/cell

     iteration # 34     ecut=   300.00 Ry     beta= 0.20
     Davidson diagonalization with overlap
     ethr =  3.09E-09,  avg # of iterations =  6.1

     negative rho (up, down):  1.759E-04 6.984E-05

     total cpu time spent up to now is      984.3 secs

     total energy              =    -181.04242388 Ry
     estimated scf accuracy    <       0.00000136 Ry

     total magnetization       =     1.00 Bohr mag/cell
     absolute magnetization    =     1.40 Bohr mag/cell

     iteration # 35     ecut=   300.00 Ry     beta= 0.20
     Davidson diagonalization with overlap
     ethr =  3.09E-09,  avg # of iterations =  2.1

     negative rho (up, down):  1.405E-04 4.749E-05

     total cpu time spent up to now is      988.0 secs

     total energy              =    -181.04242507 Ry
     estimated scf accuracy    <       0.00000057 Ry

     total magnetization       =     1.00 Bohr mag/cell
     absolute magnetization    =     1.40 Bohr mag/cell

     iteration # 36     ecut=   300.00 Ry     beta= 0.20
     Davidson diagonalization with overlap
     ethr =  2.30E-09,  avg # of iterations =  3.0

     negative rho (up, down):  1.359E-04 4.811E-05

     total cpu time spent up to now is      991.7 secs

     total energy              =    -181.04242530 Ry
     estimated scf accuracy    <       0.00000029 Ry

     total magnetization       =     1.00 Bohr mag/cell
     absolute magnetization    =     1.40 Bohr mag/cell

     iteration # 37     ecut=   300.00 Ry     beta= 0.20
     Davidson diagonalization with overlap
     ethr =  1.16E-09,  avg # of iterations =  1.9

     negative rho (up, down):  1.500E-04 6.040E-05

     total cpu time spent up to now is      995.3 secs

     total energy              =    -181.04242544 Ry
     estimated scf accuracy    <       0.00000019 Ry

     total magnetization       =     1.00 Bohr mag/cell
     absolute magnetization    =     1.40 Bohr mag/cell

     iteration # 38     ecut=   300.00 Ry     beta= 0.20
     Davidson diagonalization with overlap
     ethr =  7.48E-10,  avg # of iterations =  3.6

     negative rho (up, down):  1.599E-04 7.227E-05

     total cpu time spent up to now is     1000.0 secs

     total energy              =    -181.04242605 Ry
     estimated scf accuracy    <       0.00000032 Ry

     total magnetization       =     1.00 Bohr mag/cell
     absolute magnetization    =     1.40 Bohr mag/cell

     iteration # 39     ecut=   300.00 Ry     beta= 0.20
     Davidson diagonalization with overlap
     ethr =  7.48E-10,  avg # of iterations =  2.0

     negative rho (up, down):  1.596E-04 7.350E-05

     total cpu time spent up to now is     1004.3 secs

     total energy              =    -181.04242662 Ry
     estimated scf accuracy    <       0.00000002 Ry

     total magnetization       =     1.00 Bohr mag/cell
     absolute magnetization    =     1.40 Bohr mag/cell

     iteration # 40     ecut=   300.00 Ry     beta= 0.20
     Davidson diagonalization with overlap
     ethr =  8.28E-11,  avg # of iterations =  4.2

     negative rho (up, down):  1.589E-04 7.457E-05

     total cpu time spent up to now is     1008.4 secs

     total energy              =    -181.04242673 Ry
     estimated scf accuracy    <          9.0E-09 Ry

     total magnetization       =     1.00 Bohr mag/cell
     absolute magnetization    =     1.40 Bohr mag/cell

     iteration # 41     ecut=   300.00 Ry     beta= 0.20
     Davidson diagonalization with overlap
     ethr =  3.59E-11,  avg # of iterations =  3.9

     negative rho (up, down):  1.655E-04 7.488E-05

     total cpu time spent up to now is     1012.4 secs

     total energy              =    -181.04242682 Ry
     estimated scf accuracy    <          6.0E-09 Ry

     total magnetization       =     1.00 Bohr mag/cell
     absolute magnetization    =     1.40 Bohr mag/cell

     iteration # 42     ecut=   300.00 Ry     beta= 0.20
     Davidson diagonalization with overlap
     ethr =  2.39E-11,  avg # of iterations =  3.9

     negative rho (up, down):  1.680E-04 7.706E-05

     total cpu time spent up to now is     1016.1 secs

     total energy              =    -181.04242693 Ry
     estimated scf accuracy    <          7.0E-09 Ry

     total magnetization       =     1.00 Bohr mag/cell
     absolute magnetization    =     1.40 Bohr mag/cell

     iteration # 43     ecut=   300.00 Ry     beta= 0.20
     Davidson diagonalization with overlap
     ethr =  2.39E-11,  avg # of iterations =  2.0

     negative rho (up, down):  1.686E-04 7.809E-05

     total cpu time spent up to now is     1020.2 secs

     total energy              =    -181.04242704 Ry
     estimated scf accuracy    <          3.6E-09 Ry

     total magnetization       =     1.00 Bohr mag/cell
     absolute magnetization    =     1.40 Bohr mag/cell

     iteration # 44     ecut=   300.00 Ry     beta= 0.20
     Davidson diagonalization with overlap
     ethr =  1.42E-11,  avg # of iterations =  2.4

     negative rho (up, down):  1.687E-04 7.823E-05

     total cpu time spent up to now is     1023.9 secs

     total energy              =    -181.04242707 Ry
     estimated scf accuracy    <          1.2E-09 Ry

     total magnetization       =     1.00 Bohr mag/cell
     absolute magnetization    =     1.40 Bohr mag/cell

     iteration # 45     ecut=   300.00 Ry     beta= 0.20
     Davidson diagonalization with overlap
     ethr =  4.77E-12,  avg # of iterations =  2.1

     negative rho (up, down):  1.692E-04 7.942E-05

     total cpu time spent up to now is     1029.0 secs

     total energy              =    -181.04242708 Ry
     estimated scf accuracy    <          3.1E-10 Ry

     total magnetization       =     1.00 Bohr mag/cell
     absolute magnetization    =     1.40 Bohr mag/cell

     iteration # 46     ecut=   300.00 Ry     beta= 0.20
     Davidson diagonalization with overlap
     ethr =  1.23E-12,  avg # of iterations =  3.1

     negative rho (up, down):  1.692E-04 8.001E-05

     total cpu time spent up to now is     1032.9 secs

     total energy              =    -181.04242712 Ry
     estimated scf accuracy    <          6.8E-11 Ry

     total magnetization       =     1.00 Bohr mag/cell
     absolute magnetization    =     1.40 Bohr mag/cell

     iteration # 47     ecut=   300.00 Ry     beta= 0.20
     Davidson diagonalization with overlap
     ethr =  2.72E-13,  avg # of iterations =  4.6

     negative rho (up, down):  1.692E-04 7.997E-05

     total cpu time spent up to now is     1037.2 secs

     total energy              =    -181.04242713 Ry
     estimated scf accuracy    <          1.1E-11 Ry

     total magnetization       =     1.00 Bohr mag/cell
     absolute magnetization    =     1.40 Bohr mag/cell

     iteration # 48     ecut=   300.00 Ry     beta= 0.20
     Davidson diagonalization with overlap
     ethr =  1.00E-13,  avg # of iterations =  2.4

     negative rho (up, down):  1.694E-04 7.990E-05

     Magnetic moment per site:
     atom:    1    charge:   10.9638    magn:    0.9711    constr:    0.0000
     atom:    2    charge:    3.6713    magn:   -0.0709    constr:    0.0000
     atom:    3    charge:    3.6713    magn:   -0.0709    constr:    0.0000

     total cpu time spent up to now is     1039.0 secs

     End of self-consistent calculation

 ------ SPIN UP ------------


          k = 0.0000 0.0000 0.0000 (114875 PWs)   bands (ev):

   -65.4434 -39.6305 -39.6305 -39.5174 -15.0286 -13.9861  -6.1826  -2.9100
    -2.9100  -2.5571  -1.9297  -1.9297  -1.3303   1.5098   1.5098   1.5520
     1.5520

          k = 0.0000 0.1917 0.0000 (114904 PWs)   bands (ev):

   -65.4415 -39.6512 -39.6354 -39.5134 -14.6963 -13.7397  -5.8119  -3.7532
    -3.1221  -2.6957  -2.3325  -1.9557  -1.5004   0.4921   0.7495   0.9969
     1.7196

          k = 0.0000 0.3834 0.0000 (114808 PWs)   bands (ev):

   -65.4376 -39.6925 -39.6452 -39.5056 -13.8940 -13.1518  -5.6297  -4.9015
    -4.6218  -2.9677  -2.3414  -2.2036  -1.9494  -0.0208   0.1122   1.1863
     1.9593

          k = 0.0000-0.5751 0.0000 (114772 PWs)   bands (ev):

   -65.4357 -39.7130 -39.6501 -39.5017 -13.3776 -12.7850  -6.5630  -5.5135
    -4.5596  -3.2334  -2.4202  -1.8982  -1.8925  -0.2946  -0.1177   1.7541
     2.0266

          k = 0.1660 0.2876 0.0000 (114867 PWs)   bands (ev):

   -65.4386 -39.6784 -39.6466 -39.5076 -14.1214 -13.3152  -5.2880  -4.7715
    -3.9513  -3.2994  -2.7734  -1.9445  -1.7442   0.0419   0.1548   0.6402
     1.8672

          k = 0.1660 0.4793 0.0000 (114747 PWs)   bands (ev):

   -65.4357 -39.7026 -39.6605 -39.5017 -13.4043 -12.7930  -6.0369  -5.1962
    -4.5376  -3.6242  -3.3922  -2.3658  -1.5638  -0.3046   0.0885   1.1364
     1.9042

          k = 0.3321 0.5751 0.0000 (114798 PWs)   bands (ev):

   -65.4347 -39.6928 -39.6832 -39.4997 -13.1417 -12.5940  -5.3848  -5.3144
    -5.1259  -4.3093  -4.0663  -2.5298  -1.2677  -0.6479   0.5339   0.8921
     2.0469

 ------ SPIN DOWN ----------


          k = 0.0000 0.0000 0.0000 (114875 PWs)   bands (ev):

   -64.3041 -38.4602 -38.4587 -38.4587 -15.0670 -14.0724  -5.9525  -2.5905
    -2.2786  -2.2786  -1.5862  -1.5862  -0.0252   1.6368   1.6368   1.9765
     1.9765

          k = 0.0000 0.1917 0.0000 (114904 PWs)   bands (ev):

   -64.3020 -38.4807 -38.4639 -38.4558 -14.7406 -13.8278  -5.5984  -3.3562
    -2.9980  -2.1456  -2.0449  -1.9499  -0.2413   1.0863   1.2608   1.5342
     1.9177

          k = 0.0000 0.3834 0.0000 (114808 PWs)   bands (ev):

   -64.2980 -38.5243 -38.4742 -38.4471 -13.9553 -13.2451  -5.4492  -4.7285
    -4.5861  -2.7393  -2.2747  -1.9218  -0.8219   0.9860   1.2121   1.5664
     2.2342

          k = 0.0000-0.5751 0.0000 (114772 PWs)   bands (ev):

   -64.2960 -38.5460 -38.4793 -38.4427 -13.4532 -12.8823  -6.4305  -5.5068
    -4.3582  -3.0236  -2.2899  -1.8466  -0.8723   0.8499   1.3129   2.0978
     2.3243

          k = 0.1660 0.2876 0.0000 (114867 PWs)   bands (ev):

   -64.2990 -38.5094 -38.4757 -38.4493 -14.1772 -13.4069  -5.0892  -4.5583
    -3.8911  -3.1099  -2.4704  -1.9147  -0.5777   0.9077   1.0398   1.2665
     2.1873

          k = 0.1660 0.4793 0.0000 (114747 PWs)   bands (ev):

   -64.2960 -38.5351 -38.4903 -38.4427 -13.4781 -12.8903  -5.8943  -5.1669
    -4.3594  -3.4989  -3.2356  -2.2390  -0.5131   1.0459   1.2312   1.5088
     2.2725

          k = 0.3321 0.5751 0.0000 (114798 PWs)   bands (ev):

   -64.2950 -38.5254 -38.5134 -38.4405 -13.2223 -12.6940  -5.2470  -5.2180
    -5.0357  -4.1451  -4.0619  -2.3475  -0.1888   0.8873   1.3009   1.6136
     2.4255

     the spin up/dw Fermi energies are    -0.9721   -1.2376 ev

!    total energy              =    -181.04242713 Ry
     estimated scf accuracy    <          3.5E-12 Ry
     smearing contrib. (-TS)   =      -0.00000000 Ry
     internal energy E=F+TS    =    -181.04242713 Ry

     The total energy is F=E-TS. E is the sum of the following terms:
     one-electron contribution =    -966.95401439 Ry
     hartree contribution      =     483.02771583 Ry
     xc contribution           =     -25.59467561 Ry
     ewald contribution        =     328.47854704 Ry

     total magnetization       =     1.00 Bohr mag/cell
     absolute magnetization    =     1.40 Bohr mag/cell

     convergence has been achieved in  48 iterations

     Forces acting on atoms (cartesian axes, Ry/au):

     atom    1 type  2   force =     0.00000000    0.00000000    0.00000000
     atom    2 type  1   force =     0.00000000   -0.00000000   -0.00002566
     atom    3 type  1   force =     0.00000000    0.00000000    0.00002566

     Total force =     0.000036     Total SCF correction =     0.000003


     Computing stress (Cartesian axis) and pressure

          total   stress  (Ry/bohr**3)                   (kbar)     P=       -0.03
  -0.00000010   0.00000000   0.00000000           -0.01        0.00        0.00
   0.00000000  -0.00000010  -0.00000000            0.00       -0.01       -0.00
   0.00000000   0.00000000  -0.00000041            0.00        0.00       -0.06


     Writing output data file pwscf_output/pwscf.save/

     init_run     :      4.48s CPU      5.79s WALL (       2 calls)
     electrons    :    528.72s CPU    995.40s WALL (      10 calls)
     update_pot   :     11.87s CPU     12.93s WALL (       8 calls)
     forces       :      7.15s CPU      7.73s WALL (      10 calls)
     stress       :     17.54s CPU     19.54s WALL (      10 calls)

     Called by init_run:
     wfcinit      :      2.22s CPU      3.23s WALL (       2 calls)
     potinit      :      1.04s CPU      1.17s WALL (       2 calls)
     hinit0       :      1.03s CPU      1.19s WALL (       2 calls)

     Called by electrons:
     c_bands      :    329.09s CPU    484.08s WALL (     277 calls)
     sum_band     :     29.98s CPU     54.86s WALL (     277 calls)
     v_of_rho     :      9.77s CPU     18.04s WALL (     287 calls)
     mix_rho      :    159.64s CPU    437.34s WALL (     277 calls)

     Called by c_bands:
     init_us_2    :     11.74s CPU     12.21s WALL (    8064 calls)
     cegterg      :    313.14s CPU    464.00s WALL (    3907 calls)

     Called by *egterg:
     cdiaghg      :      5.33s CPU      7.03s WALL (   15861 calls)
     h_psi        :    188.57s CPU    322.34s WALL (   16030 calls)
     g_psi        :      1.24s CPU      1.42s WALL (   12095 calls)

     Called by h_psi:
     h_psi:calbec :     31.89s CPU     39.60s WALL (   16030 calls)
     vloc_psi     :    122.09s CPU    246.78s WALL (   16030 calls)
     add_vuspsi   :     32.37s CPU     33.12s WALL (   16030 calls)

     General routines
     calbec       :     33.89s CPU     42.49s WALL (   16730 calls)
     fft          :      3.40s CPU     12.33s WALL (    5551 calls)
     ffts         :     76.67s CPU    222.48s WALL (  157943 calls)
     fftw         :    137.13s CPU    279.26s WALL (  432646 calls)

     Parallel routines
     fft_scatt_xy :     10.08s CPU     18.85s WALL (  596140 calls)
     fft_scatt_yz :    137.66s CPU    376.31s WALL (  596140 calls)

     PWSCF        :   9m30.35s CPU  17m24.42s WALL


   This run was terminated on:  13:22:19  19May2022            

=------------------------------------------------------------------------------=
   JOB DONE.
=------------------------------------------------------------------------------=
